 Gaussian 16, Revision C.01,
 Gaussian 16:  ES64L-G16RevC.01  3-Jul-2019

 ----------------------------------------------------------------------
 #p irc=(lqa,reverse,calcfc,maxpoints=300,recalc=30,stepsize=3) b3lyp/6
 -31g(d) g09def g09def
 ----------------------------------------------------------------------

 ---
 Int
 ---
 Symbolic Z-matrix:
 Charge =  0 Multiplicity = 1

 SCF Done:  E(RB3LYP) =  -388.175902883     A.U. after   14 cycles
 SCF Done:  E(RB3LYP) =  -388.175908117     A.U. after   11 cycles
 SCF Done:  E(RB3LYP) =  -388.175924082     A.U. after   11 cycles
 SCF Done:  E(RB3LYP) =  -388.175950526     A.U. after   11 cycles
 SCF Done:  E(RB3LYP) =  -388.175987763     A.U. after   11 cycles
 SCF Done:  E(RB3LYP) =  -388.176035931     A.U. after   11 cycles
 SCF Done:  E(RB3LYP) =  -388.176095204     A.U. after   11 cycles
 SCF Done:  E(RB3LYP) =  -388.176165791     A.U. after   11 cycles
 SCF Done:  E(RB3LYP) =  -388.176247940     A.U. after   11 cycles
 SCF Done:  E(RB3LYP) =  -388.176341932     A.U. after   11 cycles
 SCF Done:  E(RB3LYP) =  -388.227714635     A.U. after    9 cycles
 SCF Done:  E(RB3LYP) =  -388.227759809     A.U. after    9 cycles
 SCF Done:  E(RB3LYP) =  -388.227800487     A.U. after    9 cycles
 SCF Done:  E(RB3LYP) =  -388.227836769     A.U. after    9 cycles
 SCF Done:  E(RB3LYP) =  -388.227868740     A.U. after    9 cycles
 SCF Done:  E(RB3LYP) =  -388.227896471     A.U. after    9 cycles
 SCF Done:  E(RB3LYP) =  -388.227920018     A.U. after    9 cycles
 SCF Done:  E(RB3LYP) =  -388.227939413     A.U. after    9 cycles
 SCF Done:  E(RB3LYP) =  -388.227954688     A.U. after    9 cycles
 SCF Done:  E(RB3LYP) =  -388.227965854     A.U. after    9 cycles

                          Input orientation:
 ---------------------------------------------------------------------
 Center     Atomic      Atomic             Coordinates (Angstroms)
 Number     Number       Type             X           Y           Z
 ---------------------------------------------------------------------
      1          6           0        1.838134   -0.692785    0.481778
      2          1           0        1.712780   -0.799814    1.568792
      3          1           0        2.652590   -1.375823    0.201683
      4          6           0        0.194258    0.284299   -1.134532
      5          1           0        0.172585    0.085317   -2.215098
      6          6           0        0.532099   -1.005374   -0.297771
      7          1           0        0.673074   -1.870234   -0.954434
      8          6           0        1.290182    1.250180   -0.771658
      9          1           0        1.343870    2.257194   -1.179065
     10          6           0        2.162102    0.733325    0.098486
     11          1           0        3.022781    1.261152    0.503264
     12          6           0       -0.923053   -0.059411    1.509570
     13          6           0       -0.782951   -1.222070    0.535892
     14          6           0       -1.278225    0.625958   -0.668442
     15          1           0       -0.716269   -0.109450    2.573924
     16          1           0       -0.874620   -2.222670    0.967481
     17          1           0       -1.811455    1.304932   -1.338963
     18          6           0       -1.215351    1.035447    0.794195
     19          1           0       -1.284856    2.055857    1.157325
     20          6           0       -1.837999   -0.811383   -0.522433
     21          1           0       -1.780850   -1.398642   -1.447769
     22          1           0       -2.861936   -0.833183   -0.135821
 ---------------------------------------------------------------------

 Alpha  occ. eigenvalues --  -10.18545 -10.18492 -10.18268 -10.18160 -10.17705
 Alpha  occ. eigenvalues --  -10.17623 -10.17474 -10.17335 -10.17218 -10.17143
 Alpha  occ. eigenvalues --   -0.87819  -0.80652  -0.72541  -0.71827  -0.67066
 Alpha  occ. eigenvalues --   -0.66194  -0.55822  -0.55442  -0.52961  -0.50886
 Alpha  occ. eigenvalues --   -0.49356  -0.47919  -0.45647  -0.41128  -0.39047
 Alpha  occ. eigenvalues --   -0.38313  -0.36661  -0.35875  -0.34086  -0.33854
 Alpha  occ. eigenvalues --   -0.32474  -0.31315  -0.30950  -0.30063  -0.23085
 Alpha  occ. eigenvalues --   -0.23004
 Alpha virt. eigenvalues --    0.02274   0.03408   0.09287   0.12415   0.13239
 Alpha virt. eigenvalues --    0.14482   0.15098   0.15833   0.16771   0.17328
 Alpha virt. eigenvalues --    0.17826   0.18110   0.18699   0.20010   0.20255

 Mulliken charges:
               1
     1  C   -0.303159
     2  H    0.139203
     3  H    0.138667
     4  C   -0.137804
     5  H    0.129567
     6  C   -0.107996
     7  H    0.127971
     8  C   -0.093873
     9  H    0.118582
    10  C   -0.110838
    11  H    0.120229
    12  C   -0.109939
    13  C   -0.146832
    14  C   -0.145914
    15  H    0.123927
    16  H    0.115107
    17  H    0.113803
    18  C   -0.097283
    19  H    0.125083
    20  C   -0.262294
    21  H    0.125002
    22  H    0.138793
 Sum of Mulliken charges =  -0.00000

 Dipole moment (field-independent basis, Debye):
    X=              0.1116    Y=             -0.1083    Z=             -0.0887  Tot=              0.1791
 Quadrupole moment (field-independent basis, Debye-Ang):
   XX=            -60.9263   YY=            -57.9348   ZZ=            -58.8272
   XY=             -0.3274   XZ=              1.5570   YZ=             -0.4237

  Exact polarizability:       0.000       0.000       0.000       0.000       0.000       0.000
 Approx polarizability:     130.270     -10.512     144.756      19.039     -17.352     139.883

 Normal termination of Gaussian 16 at Fri Jun 25 15:50:45 2021.
