 Gaussian 16, Revision C.01,
 Gaussian 16:  ES64L-G16RevC.01  3-Jul-2019

 ----------------------------------------------------------------------
 #p irc=(reverse,calcfc,maxpoints=300,recalc=30,stepsize=3) b3lyp/6-31g
 (d) g09def
 ----------------------------------------------------------------------

 ---
 Int
 ---
 Symbolic Z-matrix:
 Charge =  0 Multiplicity = 1

 SCF Done:  E(RB3LYP) =  -388.171241899     A.U. after   15 cycles
 SCF Done:  E(RB3LYP) =  -388.171263996     A.U. after   11 cycles
 SCF Done:  E(RB3LYP) =  -388.171329511     A.U. after   12 cycles
 SCF Done:  E(RB3LYP) =  -388.171436867     A.U. after   12 cycles
 SCF Done:  E(RB3LYP) =  -388.171583730     A.U. after   12 cycles
 SCF Done:  E(RB3LYP) =  -388.171767024     A.U. after   12 cycles
 SCF Done:  E(RB3LYP) =  -388.171982916     A.U. after   12 cycles
 SCF Done:  E(RB3LYP) =  -388.172226835     A.U. after   12 cycles
 SCF Done:  E(RB3LYP) =  -388.172493506     A.U. after   12 cycles
 SCF Done:  E(RB3LYP) =  -388.172777015     A.U. after   12 cycles
 SCF Done:  E(RB3LYP) =  -388.175572543     A.U. after   10 cycles
 SCF Done:  E(RB3LYP) =  -388.175649863     A.U. after   10 cycles
 SCF Done:  E(RB3LYP) =  -388.175718547     A.U. after   10 cycles
 SCF Done:  E(RB3LYP) =  -388.175778528     A.U. after   10 cycles
 SCF Done:  E(RB3LYP) =  -388.175829614     A.U. after   10 cycles
 SCF Done:  E(RB3LYP) =  -388.175871550     A.U. after   10 cycles
 SCF Done:  E(RB3LYP) =  -388.175903957     A.U. after   10 cycles
 SCF Done:  E(RB3LYP) =  -388.175925056     A.U. after   10 cycles
 SCF Done:  E(RB3LYP) =  -388.175926910     A.U. after   10 cycles
 SCF Done:  E(RB3LYP) =  -388.175939962     A.U. after   10 cycles

                          Input orientation:
 ---------------------------------------------------------------------
 Center     Atomic      Atomic             Coordinates (Angstroms)
 Number     Number       Type             X           Y           Z
 ---------------------------------------------------------------------
      1          6           0        1.842390   -0.813817    0.498034
      2          1           0        1.727216   -1.308804    1.468689
      3          1           0        2.788587   -1.164998    0.055796
      4          6           0        0.657743    0.124887   -1.343158
      5          1           0        0.284636    0.152934   -2.358824
      6          6           0        0.671260   -1.078010   -0.467731
      7          1           0        0.697250   -2.036927   -0.993053
      8          6           0        1.334889    1.151320   -0.678834
      9          1           0        1.373431    2.183809   -1.013908
     10          6           0        1.808457    0.691056    0.539475
     11          1           0        2.331336    1.289695    1.278001
     12          6           0       -0.659167    0.124143    1.343793
     13          6           0       -0.671769   -1.078459    0.467989
     14          6           0       -1.806766    0.690915   -0.540333
     15          1           0       -0.284971    0.152507    2.359054
     16          1           0       -0.697708   -2.037612    0.992886
     17          1           0       -2.329053    1.289809   -1.279075
     18          6           0       -1.334738    1.150873    0.679083
     19          1           0       -1.373258    2.183325    1.014261
     20          6           0       -1.842394   -0.813898   -0.498252
     21          1           0       -1.727373   -1.309443   -1.468637
     22          1           0       -2.788981   -1.163974   -0.055970
 ---------------------------------------------------------------------

 Alpha  occ. eigenvalues --  -10.18922 -10.18911 -10.17957 -10.17952 -10.17890
 Alpha  occ. eigenvalues --  -10.17890 -10.17697 -10.17689 -10.17223 -10.17221
 Alpha  occ. eigenvalues --   -0.86623  -0.82200  -0.72369  -0.70094  -0.67949
 Alpha  occ. eigenvalues --   -0.66338  -0.56386  -0.54250  -0.52549  -0.50723
 Alpha  occ. eigenvalues --   -0.50522  -0.48607  -0.45248  -0.41623  -0.38020
 Alpha  occ. eigenvalues --   -0.37331  -0.36737  -0.36093  -0.35718  -0.34750
 Alpha  occ. eigenvalues --   -0.33531  -0.32235  -0.31275  -0.28883  -0.23796
 Alpha  occ. eigenvalues --   -0.16842
 Alpha virt. eigenvalues --   -0.03023   0.03356   0.07568   0.09951   0.13111
 Alpha virt. eigenvalues --    0.13996   0.14650   0.15403   0.16084   0.16976
 Alpha virt. eigenvalues --    0.17999   0.18463   0.19416   0.19584   0.20606

 Mulliken charges:
               1
     1  C   -0.285198
     2  H    0.131740
     3  H    0.145437
     4  C   -0.140282
     5  H    0.131566
     6  C   -0.137508
     7  H    0.125982
     8  C   -0.059352
     9  H    0.120427
    10  C   -0.153547
    11  H    0.120770
    12  C   -0.140094
    13  C   -0.137620
    14  C   -0.153671
    15  H    0.131510
    16  H    0.125929
    17  H    0.120753
    18  C   -0.059343
    19  H    0.120434
    20  C   -0.285075
    21  H    0.131711
    22  H    0.145431
 Sum of Mulliken charges =  -0.00000

 Dipole moment (field-independent basis, Debye):
    X=              0.0008    Y=             -0.2509    Z=             -0.0009  Tot=              0.2509
 Quadrupole moment (field-independent basis, Debye-Ang):
   XX=            -61.3013   YY=            -57.0774   ZZ=            -58.3220
   XY=             -0.0015   XZ=              2.3125   YZ=              0.0004

  Exact polarizability:       0.000       0.000       0.000       0.000       0.000       0.000
 Approx polarizability:     262.371      -0.057     148.754      -0.683      -0.064     185.583

 Normal termination of Gaussian 16 at Fri Jun 18 20:18:58 2021.
